                               Psi4 1.7 release

  ==> Input File <==

--------------------------------------------------------------------------

# Any line starting with the # character is a comment line
#! Sample HF/cc-pVDZ H2O computation

memory 2 GB

molecule CONF {
 0 1
 C   -0.029238967300    1.240021833635    0.004102331159
 C    1.242028608894    0.741115265396   -0.003124609082
 N    1.354559890716   -0.632373140779   -0.008846803607
 C    0.176855763750   -1.183135447176   -0.005238541611
 S   -1.171609008388   -0.065493748636    0.005619362356
 H   -0.348919273734    2.272940280758    0.008995561561
 H    2.143339189763    1.343327924016   -0.005248346965
 H    0.006507119362   -2.253810619930   -0.008361480992
}

set {
    freeze_core True
}

basis {
    assign 6-311g*
    assign I  def2-tzvp
}

# set cubeprop_tasks ['esp']

E, wfn = prop('b3lyp-d3', properties=["GRID_ESP", "GRID_FIELD"], return_wfn=True)
oeprop(wfn, 'DIPOLE', 'QUADRUPOLE', title='DIPOLE+QUADRUPOLE')
# cubeprop(wfn)
--------------------------------------------------------------------------

    Molecular point group: c1

    Geometry (in Angstrom), charge = 0, multiplicity = 1:

       Center              X                  Y                   Z               Mass
    ------------   -----------------  -----------------  -----------------  -----------------
         C           -0.029238967300     1.240021833635     0.004102331159    12.000000000000
         C            1.242028608894     0.741115265396    -0.003124609082    12.000000000000
         N            1.354559890716    -0.632373140779    -0.008846803607    14.003074004430
         C            0.176855763750    -1.183135447176    -0.005238541611    12.000000000000
         S           -1.171609008388    -0.065493748636     0.005619362356    31.972071174400
         H           -0.348919273734     2.272940280758     0.008995561561     1.007825032230
         H            2.143339189763     1.343327924016    -0.005248346965     1.007825032230
         H            0.006507119362    -2.253810619930    -0.008361480992     1.007825032230

  Charge       = 0
  Multiplicity = 1
  Basis Set: ANONYMOUS1F50FE3C
    Blend: 6-311G*
  Basis Set: (ANONYMOUS1F50FE3C AUX)
    Blend: CC-PVTZ-JKFIT

    Orbital Energies [Eh]
    ---------------------

    Doubly Occupied:

       1A    -88.891541     2A    -14.319636     3A    -10.239565
       4A    -10.211546     5A    -10.209113     6A     -7.977948
       7A     -5.940488     8A     -5.937044     9A     -5.934351
      10A     -0.970987    11A     -0.807757    12A     -0.749985
      13A     -0.603863    14A     -0.578202    15A     -0.516855
      16A     -0.439324    17A     -0.423297    18A     -0.416496
      19A     -0.376249    20A     -0.293481    21A     -0.283992
      22A     -0.259518

  @DF-RKS Final Energy:  -569.11322847788040

   => Energetics <=

    Nuclear Repulsion Energy =            204.0487836705875964
    One-Electron Energy =               -1184.6855805216328008
    Two-Electron Energy =                 451.9090663276046484
    DFT Exchange-Correlation Energy =     -40.3829461344398126
    Empirical Dispersion Energy =          -0.0025518200000000
    VV10 Nonlocal Energy =                  0.0000000000000000
    Total Energy =                       -569.1132284778805115
 Dipole X            :         -2.1136236            1.6534623           -0.4601613
 Dipole Y            :         -0.9369532            1.2773708            0.3404176
 Dipole Z            :          0.0076357           -0.0041517            0.0034839
 Magnitude           :                                                    0.5724025
 Dipole X            :         -2.1136236            1.6534623           -0.4601613
 Dipole Y            :         -0.9369532            1.2773708            0.3404176
 Dipole Z            :          0.0076357           -0.0041517            0.0034839
 Magnitude           :                                                    0.5724025
*** Psi4 exiting successfully. Buy a developer a beer!
