                               Psi4 1.7 release

  ==> Input File <==

--------------------------------------------------------------------------

# Any line starting with the # character is a comment line
#! Sample HF/cc-pVDZ H2O computation

memory 2 GB

molecule CONF {
 0 1
C         -0.01140        1.25540        0.00110
C          1.27560        0.76130       -0.00670
N          1.38850       -0.61530       -0.01120
C          0.18560       -1.14720       -0.00830
S         -1.13000       -0.04520        0.00150
H         -0.33720        2.28530        0.00600
H          2.17480        1.36560       -0.00960
H          0.02720       -2.21770       -0.01210
}

set {
    freeze_core True
}

basis {
    assign 6-31g*
    assign I  lanl2dz
}

optimize('b3lyp-d3')
CONF.save_xyz_file("opt.xyz", 1)

--------------------------------------------------------------------------

    Molecular point group: c1
  Charge       = 0
  Multiplicity = 1
  Basis Set: ANONYMOUSE712A500
    Blend: 6-31G*
  Basis Set: (ANONYMOUSE712A500 AUX)
    Blend: CC-PVDZ-JKFIT
  @DF-RKS Final Energy:  -569.04864437990943
    Total Energy =                       -569.0486443799095468
 Dipole X            :         -2.1208401            1.6278672           -0.4929729
 Dipole Y            :         -0.9199208            1.2835471            0.3636263
 Dipole Z            :          0.0075724           -0.0049206            0.0026518
 Magnitude           :                                                    0.6125793
    Molecular point group: c1
  Basis Set: ANONYMOUSE712A500
    Blend: 6-31G*
  Basis Set: (ANONYMOUSE712A500 AUX)
    Blend: CC-PVDZ-JKFIT
  Basis Set: ANONYMOUSE712A500
    Blend: 6-31G*
  Basis Set: (ANONYMOUSE712A500 AUX)
    Blend: CC-PVDZ-JKFIT
  @DF-RKS Final Energy:  -569.04941605009503
    Total Energy =                       -569.0494160500951466
  Basis Set: ANONYMOUSE712A500
    Blend: 6-31G*
  Basis Set: (ANONYMOUSE712A500 AUX)
    Blend: CC-PVDZ-JKFIT
  Basis Set: ANONYMOUSE712A500
    Blend: 6-31G*
  @DF-RKS Final Energy:  -569.04957227295768
    Total Energy =                       -569.0495722729577892
  @DF-RKS Final Energy:  -569.04958147371519
    Total Energy =                       -569.0495814737153069
  @DF-RKS Final Energy:  -569.04958287572549
    Total Energy =                       -569.0495828757254912
  Basis Set: (ANONYMOUSE712A500 AUX)
    Blend: CC-PVDZ-JKFIT
  Basis Set: ANONYMOUSE712A500
    Blend: 6-31G*
  Basis Set: (ANONYMOUSE712A500 AUX)
    Blend: CC-PVDZ-JKFIT
  @DF-RKS Final Energy:  -569.04958579786478
    Total Energy =                       -569.0495857978648928
  Basis Set: ANONYMOUSE712A500
    Blend: 6-31G*
  Basis Set: (ANONYMOUSE712A500 AUX)
    Blend: CC-PVDZ-JKFIT
  Charge       = 0
  Multiplicity = 1
  Basis Set: ANONYMOUSE712A500
    Blend: 6-31G*
  Basis Set: (ANONYMOUSE712A500 AUX)
    Blend: CC-PVDZ-JKFIT

    Orbital Energies [Eh]
    ---------------------

    Doubly Occupied:

       1A    -88.919760     2A    -14.340652     3A    -10.253133
       4A    -10.225339     5A    -10.223031     6A     -7.981712
       7A     -5.945376     8A     -5.941934     9A     -5.939042
      10A     -0.963976    11A     -0.801381    12A     -0.743760
      13A     -0.597494    14A     -0.572771    15A     -0.509763
      16A     -0.432573    17A     -0.417038    18A     -0.409370
      19A     -0.369995    20A     -0.286974    21A     -0.276999
      22A     -0.252149

  @DF-RKS Final Energy:  -569.04958601545172

   => Energetics <=

    Nuclear Repulsion Energy =            204.0487836705767677
    One-Electron Energy =               -1184.5499577099706130
    Two-Electron Energy =                 451.7862946825826498
    DFT Exchange-Correlation Energy =     -40.3321548386405198
    Empirical Dispersion Energy =          -0.0025518200000000
    VV10 Nonlocal Energy =                  0.0000000000000000
    Total Energy =                       -569.0495860154517231
 Dipole X            :         -2.0895240            1.6534623           -0.4360617
 Dipole Y            :         -0.9327521            1.2773708            0.3446187
 Dipole Z            :          0.0075294           -0.0041517            0.0033776
 Magnitude           :                                                    0.5558086
    Molecular point group: c1
  Basis Set: ANONYMOUSE712A500
    Blend: 6-31G*
  Basis Set: (ANONYMOUSE712A500 AUX)
    Blend: CC-PVDZ-JKFIT

  -Total Gradient:
     Atom            X                  Y                   Z
    ------   -----------------  -----------------  -----------------
       1        0.000018052522    -0.000053041883    -0.000080903460
       2       -0.000012226688     0.000035094437     0.000093192346
       3       -0.000008640107    -0.000035984493    -0.000031378100
       4        0.000026106835     0.000048753490    -0.000032906266
       5        0.000000491776     0.000016472752     0.000068470203
       6       -0.000026433291    -0.000005706252    -0.000015002166
       7       -0.000028390423    -0.000012277522     0.000002528690
       8       -0.000013723365    -0.000005506767    -0.000003499268

    Final optimized geometry and variables:
    Molecular point group: c1

    Geometry (in Angstrom), charge = 0, multiplicity = 1:

    C           -0.029238967300     1.240021833635     0.004102331159
    C            1.242028608894     0.741115265396    -0.003124609082
    N            1.354559890716    -0.632373140779    -0.008846803607
    C            0.176855763750    -1.183135447176    -0.005238541611
    S           -1.171609008388    -0.065493748636     0.005619362356
    H           -0.348919273734     2.272940280758     0.008995561561
    H            2.143339189763     1.343327924016    -0.005248346965
    H            0.006507119362    -2.253810619930    -0.008361480992

*** Psi4 exiting successfully. Buy a developer a beer!
