                               Psi4 1.7 release

  ==> Input File <==

--------------------------------------------------------------------------

# Any line starting with the # character is a comment line
#! Sample HF/cc-pVDZ H2O computation

memory 2 GB

molecule CONF {
 0 1
 C    0.265347401874   -1.214940729227    0.002066131504
 C    1.661086099611   -1.198943065411    0.014592435308
 C    2.355298463732    0.012448085931    0.021390992231
 C    1.648303877288    1.216443718260    0.015671305216
 C    0.252483434611    1.217672941672    0.003038390776
 C   -0.423626600139   -0.002242146951   -0.003617897657
Cl   -2.184760942256   -0.011547580271   -0.020118189480
 H   -0.284031737559   -2.150324881476   -0.003502814502
 H    2.203740335574   -2.140240004854    0.018862105163
 H    3.441344528464    0.018200604701    0.030966935752
 H    2.180980712059    2.163416475568    0.020762207527
 H   -0.306778533071    2.147188553037   -0.001785714215
}

set {
    freeze_core True
}

basis {
    assign 6-311g*
    assign I  def2-tzvp
}

# set cubeprop_tasks ['esp']

E, wfn = prop('b3lyp-d3', properties=["GRID_ESP", "GRID_FIELD"], return_wfn=True)
oeprop(wfn, 'DIPOLE', 'QUADRUPOLE', title='DIPOLE+QUADRUPOLE')
# cubeprop(wfn)
--------------------------------------------------------------------------

    Molecular point group: c1

    Geometry (in Angstrom), charge = 0, multiplicity = 1:

       Center              X                  Y                   Z               Mass
    ------------   -----------------  -----------------  -----------------  -----------------
         C            0.265347401874    -1.214940729227     0.002066131504    12.000000000000
         C            1.661086099611    -1.198943065411     0.014592435308    12.000000000000
         C            2.355298463732     0.012448085931     0.021390992231    12.000000000000
         C            1.648303877288     1.216443718260     0.015671305216    12.000000000000
         C            0.252483434611     1.217672941672     0.003038390776    12.000000000000
         C           -0.423626600139    -0.002242146951    -0.003617897657    12.000000000000
         CL          -2.184760942256    -0.011547580271    -0.020118189480    34.968852682000
         H           -0.284031737559    -2.150324881476    -0.003502814502     1.007825032230
         H            2.203740335574    -2.140240004854     0.018862105163     1.007825032230
         H            3.441344528464     0.018200604701     0.030966935752     1.007825032230
         H            2.180980712059     2.163416475568     0.020762207527     1.007825032230
         H           -0.306778533071     2.147188553037    -0.001785714215     1.007825032230

  Charge       = 0
  Multiplicity = 1
  Basis Set: ANONYMOUS2F5095B4
    Blend: 6-311G*
  Basis Set: (ANONYMOUS2F5095B4 AUX)
    Blend: CC-PVTZ-JKFIT

    Orbital Energies [Eh]
    ---------------------

    Doubly Occupied:

       1A   -101.555962     2A    -10.242705     3A    -10.192511
       4A    -10.192483     5A    -10.191265     6A    -10.191238
       7A    -10.187663     8A     -9.470246     9A     -7.234767
      10A     -7.225177    11A     -7.224858    12A     -0.897096
      13A     -0.842917    14A     -0.766564    15A     -0.742062
      16A     -0.627671    17A     -0.608999    18A     -0.534459
      19A     -0.476722    20A     -0.476656    21A     -0.443140
      22A     -0.439453    23A     -0.402141    24A     -0.372187
      25A     -0.371002    26A     -0.340033    27A     -0.319396
      28A     -0.271674    29A     -0.254860

  @DF-RKS Final Energy:  -691.92867354885016

   => Energetics <=

    Nuclear Repulsion Energy =            314.4628374725800768
    One-Electron Energy =               -1570.3713456799398500
    Two-Electron Energy =                 614.6035079951398075
    DFT Exchange-Correlation Energy =     -50.6165934466301977
    Empirical Dispersion Energy =          -0.0070798900000000
    VV10 Nonlocal Energy =                  0.0000000000000000
    Total Energy =                       -691.9286735488501563
 Dipole X            :         -8.0029804            8.7828335            0.7798532
 Dipole Y            :         -0.0422989            0.0464206            0.0041216
 Dipole Z            :         -0.0727773            0.0796362            0.0068589
 Magnitude           :                                                    0.7798942
 Dipole X            :         -8.0029804            8.7828335            0.7798532
 Dipole Y            :         -0.0422989            0.0464206            0.0041216
 Dipole Z            :         -0.0727773            0.0796362            0.0068589
 Magnitude           :                                                    0.7798942
*** Psi4 exiting successfully. Buy a developer a beer!
