                               Psi4 1.7 release

  ==> Input File <==

--------------------------------------------------------------------------

# Any line starting with the # character is a comment line
#! Sample HF/cc-pVDZ H2O computation

memory 2 GB

molecule CONF {
 0 1
C          0.32340       -1.21350       -0.01520
C          1.71890       -1.20510       -0.00040
C          2.40910        0.00760        0.00880
C          1.70590        1.21290        0.00010
C          0.31060        1.20690       -0.01380
C         -0.37570       -0.00730       -0.01830
Cl        -2.09640       -0.01620       -0.02440
H         -0.21110       -2.15950       -0.02320
H          2.26790       -2.14360        0.00460
H          3.49640        0.01330        0.02360
H          2.24510        2.15700        0.00420
H         -0.23400        2.14700       -0.01910
}

set {
    freeze_core True
}

basis {
    assign 6-31g*
    assign I  lanl2dz
}

optimize('b3lyp-d3')
CONF.save_xyz_file("opt.xyz", 1)

--------------------------------------------------------------------------

    Molecular point group: c1
  Charge       = 0
  Multiplicity = 1
  Basis Set: ANONYMOUSE6AD0540
    Blend: 6-31G*
  Basis Set: (ANONYMOUSE6AD0540 AUX)
    Blend: CC-PVDZ-JKFIT
  @DF-RKS Final Energy:  -691.85121145080450
    Total Energy =                       -691.8512114508044988
 Dipole X            :         -8.0663911            8.7605028            0.6941117
 Dipole Y            :         -0.0424904            0.0461310            0.0036405
 Dipole Z            :         -0.0531799            0.0578041            0.0046241
 Magnitude           :                                                    0.6941367
    Molecular point group: c1
  Basis Set: ANONYMOUSE6AD0540
    Blend: 6-31G*
  Basis Set: (ANONYMOUSE6AD0540 AUX)
    Blend: CC-PVDZ-JKFIT
  Basis Set: ANONYMOUSE6AD0540
    Blend: 6-31G*
  Basis Set: (ANONYMOUSE6AD0540 AUX)
    Blend: CC-PVDZ-JKFIT
  @DF-RKS Final Energy:  -691.85192781918136
    Total Energy =                       -691.8519278191813555
  Basis Set: ANONYMOUSE6AD0540
    Blend: 6-31G*
  Basis Set: (ANONYMOUSE6AD0540 AUX)
    Blend: CC-PVDZ-JKFIT
  Basis Set: ANONYMOUSE6AD0540
    Blend: 6-31G*
  Basis Set: (ANONYMOUSE6AD0540 AUX)
    Blend: CC-PVDZ-JKFIT
  @DF-RKS Final Energy:  -691.85201668371951
    Total Energy =                       -691.8520166837195120
  Basis Set: ANONYMOUSE6AD0540
    Blend: 6-31G*
  Basis Set: (ANONYMOUSE6AD0540 AUX)
    Blend: CC-PVDZ-JKFIT
  Charge       = 0
  Multiplicity = 1
  Basis Set: ANONYMOUSE6AD0540
    Blend: 6-31G*
  Basis Set: (ANONYMOUSE6AD0540 AUX)
    Blend: CC-PVDZ-JKFIT

    Orbital Energies [Eh]
    ---------------------

    Doubly Occupied:

       1A   -101.546756     2A    -10.253734     3A    -10.204799
       4A    -10.204794     5A    -10.203596     6A    -10.203551
       7A    -10.200176     8A     -9.463084     9A     -7.227001
      10A     -7.217370    11A     -7.217068    12A     -0.888891
      13A     -0.834738    14A     -0.758855    15A     -0.734166
      16A     -0.620000    17A     -0.601326    18A     -0.526377
      19A     -0.470382    20A     -0.466059    21A     -0.434991
      22A     -0.431343    23A     -0.393638    24A     -0.363840
      25A     -0.362847    26A     -0.331854    27A     -0.311213
      28A     -0.262828    29A     -0.246370

  @DF-RKS Final Energy:  -691.85202011799743

   => Energetics <=

    Nuclear Repulsion Energy =            314.4628374725946856
    One-Electron Energy =               -1570.4788133175272833
    Two-Electron Energy =                 614.7455311328283187
    DFT Exchange-Correlation Energy =     -50.5744955158930338
    Empirical Dispersion Energy =          -0.0070798900000000
    VV10 Nonlocal Energy =                  0.0000000000000000
    Total Energy =                       -691.8520201179973128
 Dipole X            :         -8.0236938            8.7828335            0.7591397
 Dipole Y            :         -0.0424088            0.0464206            0.0040118
 Dipole Z            :         -0.0728857            0.0796362            0.0067505
 Magnitude           :                                                    0.7591803
    Molecular point group: c1
  Basis Set: ANONYMOUSE6AD0540
    Blend: 6-31G*
  Basis Set: (ANONYMOUSE6AD0540 AUX)
    Blend: CC-PVDZ-JKFIT

  -Total Gradient:
     Atom            X                  Y                   Z
    ------   -----------------  -----------------  -----------------
       1        0.000161982684    -0.000060242719     0.000010320747
       2       -0.000052752444     0.000098335846     0.000000926083
       3        0.000089770718    -0.000006824757    -0.000001134566
       4       -0.000058882437    -0.000088970593     0.000012777182
       5        0.000168350497     0.000058313820     0.000000234190
       6       -0.000292656110    -0.000000267808     0.000014771536
       7        0.000109129180     0.000000560959    -0.000009914033
       8       -0.000039702048     0.000011202794    -0.000005781299
       9       -0.000025924043    -0.000033903888    -0.000004865333
      10       -0.000025358097     0.000000997603    -0.000006059524
      11       -0.000025351996     0.000032031071    -0.000005381152
      12       -0.000041323396    -0.000011409998    -0.000006221526

    Final optimized geometry and variables:
    Molecular point group: c1

    Geometry (in Angstrom), charge = 0, multiplicity = 1:

    C            0.265347401874    -1.214940729227     0.002066131504
    C            1.661086099611    -1.198943065411     0.014592435308
    C            2.355298463732     0.012448085931     0.021390992231
    C            1.648303877288     1.216443718260     0.015671305216
    C            0.252483434611     1.217672941672     0.003038390776
    C           -0.423626600139    -0.002242146951    -0.003617897657
    CL          -2.184760942256    -0.011547580271    -0.020118189480
    H           -0.284031737559    -2.150324881476    -0.003502814502
    H            2.203740335574    -2.140240004854     0.018862105163
    H            3.441344528464     0.018200604701     0.030966935752
    H            2.180980712059     2.163416475568     0.020762207527
    H           -0.306778533071     2.147188553037    -0.001785714215

*** Psi4 exiting successfully. Buy a developer a beer!
