                               Psi4 1.7 release

  ==> Input File <==

--------------------------------------------------------------------------

# Any line starting with the # character is a comment line
#! Sample HF/cc-pVDZ H2O computation

memory 2 GB

molecule CONF {
 0 1
 S   -0.726492725992    1.277392911722    0.000000000000
 C   -2.254362791835    0.473698150776    0.000000000000
 C   -2.129371003352   -0.894157665743    0.000000000000
 C   -0.771699853753   -1.309562098374    0.000000000000
 C    0.120003840247   -0.255222714470    0.000000000000
 C    1.591153343241   -0.238551952492    0.000000000000
 C    2.347244229734   -1.559923109289    0.000000000000
 O    2.206259127466    0.820391127761    0.000000000000
 H   -3.171007778334    1.049993299583    0.000000000000
 H   -2.973175931057   -1.575228021337    0.000000000000
 H   -0.465952234395   -2.349284833877    0.000000000000
 H    1.711926637512   -2.447608295031    0.000000000000
 H    2.996291696508   -1.584886604601   -0.881486126134
 H    2.996291696508   -1.584886604601    0.881486126134
}

set {
    freeze_core True
}

basis {
    assign 6-311g*
    assign I  def2-tzvp
}

# set cubeprop_tasks ['esp']

E, wfn = prop('b3lyp-d3', properties=["GRID_ESP", "GRID_FIELD"], return_wfn=True)
oeprop(wfn, 'DIPOLE', 'QUADRUPOLE', title='DIPOLE+QUADRUPOLE')
# cubeprop(wfn)
--------------------------------------------------------------------------

    Molecular point group: cs

    Geometry (in Angstrom), charge = 0, multiplicity = 1:

       Center              X                  Y                   Z               Mass
    ------------   -----------------  -----------------  -----------------  -----------------
         S           -0.726492725992     1.277392911722     0.000000000000    31.972071174400
         C           -2.254362791835     0.473698150776     0.000000000000    12.000000000000
         C           -2.129371003352    -0.894157665743     0.000000000000    12.000000000000
         C           -0.771699853753    -1.309562098374     0.000000000000    12.000000000000
         C            0.120003840247    -0.255222714470     0.000000000000    12.000000000000
         C            1.591153343241    -0.238551952492     0.000000000000    12.000000000000
         C            2.347244229734    -1.559923109289     0.000000000000    12.000000000000
         O            2.206259127466     0.820391127761     0.000000000000    15.994914619570
         H           -3.171007778334     1.049993299583     0.000000000000     1.007825032230
         H           -2.973175931057    -1.575228021337     0.000000000000     1.007825032230
         H           -0.465952234395    -2.349284833877     0.000000000000     1.007825032230
         H            1.711926637512    -2.447608295031     0.000000000000     1.007825032230
         H            2.996291696508    -1.584886604601    -0.881486126134     1.007825032230
         H            2.996291696508    -1.584886604601     0.881486126134     1.007825032230

  Charge       = 0
  Multiplicity = 1
  Basis Set: ANONYMOUS1679D058
    Blend: 6-311G*
  Basis Set: (ANONYMOUS1679D058 AUX)
    Blend: CC-PVTZ-JKFIT

    Orbital Energies [Eh]
    ---------------------

    Doubly Occupied:

       1Ap   -88.888351     2Ap   -19.105070     3Ap   -10.269143
       4Ap   -10.217981     5Ap   -10.214153     6Ap   -10.200455
       7Ap   -10.192705     8Ap   -10.179242     9Ap    -7.974244
      10Ap    -5.937004    11Ap    -5.933262     1App   -5.930536
      12Ap    -1.041569    13Ap    -0.896957    14Ap    -0.773777
      15Ap    -0.753287    16Ap    -0.729483    17Ap    -0.623791
      18Ap    -0.575766    19Ap    -0.543496    20Ap    -0.504023
      21Ap    -0.454669     2App   -0.451610    22Ap    -0.443804
      23Ap    -0.417685    24Ap    -0.401841     3App   -0.398841
      25Ap    -0.390234    26Ap    -0.359103     4App   -0.357624
       5App   -0.270276    27Ap    -0.260251     6App   -0.255573

  @DF-RKS Final Energy:  -705.75781320603016

   => Energetics <=

    Nuclear Repulsion Energy =            410.7351307406117371
    One-Electron Energy =               -1781.0950170561623054
    Two-Electron Energy =                 720.4531751655321159
    DFT Exchange-Correlation Energy =     -55.8425970860117360
    Empirical Dispersion Energy =          -0.0085049700000000
    VV10 Nonlocal Energy =                  0.0000000000000000
    Total Energy =                       -705.7578132060301641
 Dipole X            :         -1.9578609            1.0173720           -0.9404889
 Dipole Y            :          6.8430747           -7.9232471           -1.0801724
 Dipole Z            :          0.0000000            0.0000000            0.0000000
 Magnitude           :                                                    1.4322332
 Dipole X            :         -1.9578609            1.0173720           -0.9404889
 Dipole Y            :          6.8430747           -7.9232471           -1.0801724
 Dipole Z            :          0.0000000            0.0000000            0.0000000
 Magnitude           :                                                    1.4322332
*** Psi4 exiting successfully. Buy a developer a beer!
