                               Psi4 1.7 release

  ==> Input File <==

--------------------------------------------------------------------------

# Any line starting with the # character is a comment line
#! Sample HF/cc-pVDZ H2O computation

memory 2 GB

molecule CONF {
 0 1
S         -0.86940        1.50070        0.00000
C         -2.37700        0.64320       -0.00000
C         -2.19900       -0.73450        0.00000
C         -0.84840       -1.09990        0.00000
C          0.00000        0.00000        0.00000
C          1.50000        0.00000        0.00000
C          2.14780       -1.35290        0.00000
O          2.15500        1.03990       -0.00000
H         -3.31120        1.18880       -0.00000
H         -3.01400       -1.44660       -0.00000
H         -0.50380       -2.12590        0.00000
H          1.37790       -2.12440        0.00000
H          2.76820       -1.45870       -0.89000
H          2.76820       -1.45870        0.89000
}

set {
    freeze_core True
}

basis {
    assign 6-31g*
    assign I  lanl2dz
}

optimize('b3lyp-d3')
CONF.save_xyz_file("opt.xyz", 1)

--------------------------------------------------------------------------

    Molecular point group: cs
  Charge       = 0
  Multiplicity = 1
  Basis Set: ANONYMOUS70BF3056
    Blend: 6-31G*
  Basis Set: (ANONYMOUS70BF3056 AUX)
    Blend: CC-PVDZ-JKFIT
  @DF-RKS Final Energy:  -705.65664964005850
    Total Energy =                       -705.6566496400585038
 Dipole X            :         -1.6776157            0.7209214           -0.9566942
 Dipole Y            :          7.0265515           -8.1105314           -1.0839799
 Dipole Z            :          0.0000000            0.0000000            0.0000000
 Magnitude           :                                                    1.4457787
    Molecular point group: cs
  Basis Set: ANONYMOUS70BF3056
    Blend: 6-31G*
  Basis Set: (ANONYMOUS70BF3056 AUX)
    Blend: CC-PVDZ-JKFIT
  Basis Set: ANONYMOUS70BF3056
    Blend: 6-31G*
  Basis Set: (ANONYMOUS70BF3056 AUX)
    Blend: CC-PVDZ-JKFIT
  @DF-RKS Final Energy:  -705.65997555371405
    Total Energy =                       -705.6599755537139345
  Basis Set: ANONYMOUS70BF3056
    Blend: 6-31G*
  Basis Set: (ANONYMOUS70BF3056 AUX)
    Blend: CC-PVDZ-JKFIT
  Basis Set: ANONYMOUS70BF3056
    Blend: 6-31G*
  @DF-RKS Final Energy:  -705.66064631321808
    Total Energy =                       -705.6606463132180806
  Basis Set: (ANONYMOUS70BF3056 AUX)
    Blend: CC-PVDZ-JKFIT
  Basis Set: ANONYMOUS70BF3056
    Blend: 6-31G*
  Basis Set: (ANONYMOUS70BF3056 AUX)
    Blend: CC-PVDZ-JKFIT
  @DF-RKS Final Energy:  -705.66068496435560
    Total Energy =                       -705.6606849643554824
  Basis Set: ANONYMOUS70BF3056
    Blend: 6-31G*
  Basis Set: (ANONYMOUS70BF3056 AUX)
    Blend: CC-PVDZ-JKFIT
  Charge       = 0
  Multiplicity = 1
  Basis Set: ANONYMOUS70BF3056
    Blend: 6-31G*
  Basis Set: (ANONYMOUS70BF3056 AUX)
    Blend: CC-PVDZ-JKFIT

    Orbital Energies [Eh]
    ---------------------

    Doubly Occupied:

       1Ap   -88.916971     2Ap   -19.132217     3Ap   -10.281372
       4Ap   -10.230520     5Ap   -10.225284     6Ap   -10.213468
       7Ap   -10.206258     8Ap   -10.192668     9Ap    -7.977546
      10Ap    -5.941494    11Ap    -5.937781     1App   -5.934832
      12Ap    -1.033514    13Ap    -0.889074    14Ap    -0.766832
      15Ap    -0.746079    16Ap    -0.723046    17Ap    -0.616335
      18Ap    -0.569091    19Ap    -0.535840    20Ap    -0.496559
      21Ap    -0.446960     2App   -0.444754    22Ap    -0.435534
      23Ap    -0.409239    24Ap    -0.393928     3App   -0.391453
      25Ap    -0.383124    26Ap    -0.352035     4App   -0.349366
       5App   -0.263003    27Ap    -0.250883     6App   -0.246965

  @DF-RKS Final Energy:  -705.66068673616871

   => Energetics <=

    Nuclear Repulsion Energy =            410.7351307405900229
    One-Electron Energy =               -1780.9804516259719094
    Two-Electron Energy =                 720.3607022157422080
    DFT Exchange-Correlation Energy =     -55.7675630965290168
    Empirical Dispersion Energy =          -0.0085049700000000
    VV10 Nonlocal Energy =                  0.0000000000000000
    Total Energy =                       -705.6606867361687137
 Dipole X            :         -1.9303710            1.0173720           -0.9129990
 Dipole Y            :          6.8332953           -7.9232471           -1.0899517
 Dipole Z            :          0.0000000            0.0000000            0.0000000
 Magnitude           :                                                    1.4218164
    Molecular point group: cs
  Basis Set: ANONYMOUS70BF3056
    Blend: 6-31G*
  Basis Set: (ANONYMOUS70BF3056 AUX)
    Blend: CC-PVDZ-JKFIT

  -Total Gradient:
     Atom            X                  Y                   Z
    ------   -----------------  -----------------  -----------------
       1        0.000087954534    -0.000069108556     0.000000000000
       2       -0.000017428808    -0.000006169860     0.000000000000
       3       -0.000007651557    -0.000017451161     0.000000000000
       4        0.000041558904    -0.000082308263     0.000000000000
       5       -0.000093298440     0.000163327544     0.000000000000
       6       -0.000006991420    -0.000017158098     0.000000000000
       7       -0.000062860189     0.000009616625     0.000000000000
       8        0.000014432703     0.000013079585     0.000000000000
       9        0.000014737365    -0.000000658965     0.000000000000
      10       -0.000006403791     0.000007733339     0.000000000000
      11       -0.000011023500     0.000010890744     0.000000000000
      12        0.000045844561    -0.000001907788     0.000000000000
      13        0.000031994654    -0.000012038552     0.000003415305
      14        0.000031994654    -0.000012038552    -0.000003415305

    Final optimized geometry and variables:
    Molecular point group: cs

    Geometry (in Angstrom), charge = 0, multiplicity = 1:

    S           -0.726492725992     1.277392911722     0.000000000000
    C           -2.254362791835     0.473698150776     0.000000000000
    C           -2.129371003352    -0.894157665743     0.000000000000
    C           -0.771699853753    -1.309562098374     0.000000000000
    C            0.120003840247    -0.255222714470     0.000000000000
    C            1.591153343241    -0.238551952492     0.000000000000
    C            2.347244229734    -1.559923109289     0.000000000000
    O            2.206259127466     0.820391127761     0.000000000000
    H           -3.171007778334     1.049993299583     0.000000000000
    H           -2.973175931057    -1.575228021337     0.000000000000
    H           -0.465952234395    -2.349284833877     0.000000000000
    H            1.711926637512    -2.447608295031     0.000000000000
    H            2.996291696508    -1.584886604601    -0.881486126134
    H            2.996291696508    -1.584886604601     0.881486126134

*** Psi4 exiting successfully. Buy a developer a beer!
